# t (s)	mx ()	my ()	mz ()	m_zrange0-20_x ()	m_zrange0-20_y ()	m_zrange0-20_z ()	m_zrange21-31_x ()	m_zrange21-31_y ()	m_zrange21-31_z ()	m_zrange32-52_x ()	m_zrange32-52_y ()	m_zrange32-52_z ()
0	-0.5769231	0	0	-1	0	0	1	0	0	-1	0	0
1e-11	-0.5760219	0.0022649686	0.002712591	-0.9986822	0.0026332724	0.0037044887	0.99941456	0.0012447473	-0.0007124808	-0.9986823	0.002633271	0.0037044883
2.0000000000000086e-11	-0.5751844	0.008296471	0.0051780576	-0.99674475	0.009856766	0.0067931474	0.99602014	0.0037145938	-0.0002466866	-0.99674475	0.009856761	0.0067931465
3.000000000000022e-11	-0.5736278	0.016581643	0.007274873	-0.9930481	0.020391282	0.008989007	0.98932743	0.0046594273	0.0018733118	-0.9930481	0.020391274	0.008989005
4.0000000000000056e-11	-0.56963974	0.025331141	0.00900432	-0.98619235	0.032619625	0.010340417	0.98264325	0.0012434551	0.0054607997	-0.9861925	0.032619618	0.010340413
5.009999999999989e-11	-0.56042063	0.033063233	0.010347951	-0.9731933	0.045108113	0.010984138	0.9785857	-0.008503608	0.009872812	-0.97319317	0.04510809	0.010984129
6.009999999999985e-11	-0.5437127	0.038498722	0.011131554	-0.95084083	0.05618037	0.010980615	0.97605723	-0.024528053	0.013961631	-0.9508408	0.056180336	0.010980606
7.000000000000033e-11	-0.51615775	0.04096772	0.011249498	-0.9142686	0.06453401	0.010472615	0.97305405	-0.045103785	0.016606951	-0.9142686	0.064533964	0.010472609
8.000000000000081e-11	-0.48020726	0.040882148	0.010853158	-0.86572015	0.07003784	0.009823566	0.9658024	-0.06756406	0.017142154	-0.86572015	0.070037775	0.009823568
9.000000000000129e-11	-0.4459615	0.040273786	0.010295808	-0.8161621	0.07408665	0.009393775	0.9456484	-0.08692278	0.015963087	-0.8161621	0.07408659	0.009393783
1.0000000000000177e-10	-0.4208799	0.04140484	0.009887621	-0.7740743	0.07855832	0.009278382	0.9077217	-0.09892797	0.014302073	-0.77407426	0.07855825	0.009278392
1.1000000000000226e-10	-0.40252495	0.044631857	0.009633324	-0.7387713	0.08383606	0.009291303	0.8619555	-0.10325843	0.012928067	-0.7387713	0.083836004	0.009291306
1.2000000000000274e-10	-0.37937534	0.0478166	0.009242278	-0.6992496	0.08800028	0.008998755	0.82424676	-0.10335467	0.012064826	-0.69924957	0.08800022	0.008998751
1.3000000000000322e-10	-0.34489962	0.048509598	0.00832287	-0.64769256	0.08894253	0.008220211	0.79729205	-0.103520095	0.010398091	-0.64769256	0.08894247	0.008220207
1.400000000000037e-10	-0.30252483	0.04705239	0.0070053805	-0.5862956	0.08666752	0.00737152	0.7720533	-0.10199758	0.006941891	-0.58629555	0.08666748	0.007371524
1.5000000000000419e-10	-0.25845253	0.04499244	0.0059113028	-0.5212495	0.08200183	0.006412536	0.7410447	-0.09404657	0.005088604	-0.5212495	0.08200179	0.0064125494
1.6000000000000467e-10	-0.21697052	0.042243123	0.005237826	-0.45648494	0.07547932	0.005137873	0.69769317	-0.08225297	0.0066851713	-0.45648488	0.075479284	0.005137889
1.7000000000000515e-10	-0.17786282	0.038200922	0.004752619	-0.39042127	0.067715004	0.0040488956	0.63679826	-0.07221515	0.008518011	-0.3904212	0.067714974	0.004048909
1.8000000000000563e-10	-0.13686498	0.03206343	0.004834147	-0.31793246	0.05865275	0.0040559196	0.56003183	-0.06788115	0.0089138765	-0.31793237	0.058652736	0.004055926
1.9000000000000612e-10	-0.090445444	0.022148915	0.0059906985	-0.23634818	0.046811245	0.005694085	0.4750762	-0.07207063	0.00837529	-0.23634808	0.04681124	0.005694084
2.000000000000066e-10	-0.03744766	0.006677081	0.008025181	-0.14753151	0.029994134	0.008724894	0.39539796	-0.085255705	0.006831373	-0.14753139	0.029994134	0.008724889
2.1000000000000708e-10	0.019015543	-0.013377269	0.009610562	-0.059155427	0.008026843	0.0113068195	0.33550236	-0.10166918	0.00474765	-0.059155334	0.008026852	0.011306816
2.2000000000000756e-10	0.07026376	-0.03346793	0.009059863	0.015731435	-0.015820088	0.010567938	0.30244565	-0.110752895	0.004839522	0.015731532	-0.015820082	0.010567944
2.3000000000000805e-10	0.10863508	-0.05019506	0.0064301686	0.067191765	-0.037280083	0.0060628885	0.29613525	-0.111894	0.0091852965	0.06719185	-0.03728008	0.0060629025
2.4000000000000667e-10	0.1329496	-0.06263193	0.0031475073	0.0954134	-0.052523315	0.00032355526	0.30968428	-0.115592755	0.0150727825	0.09541346	-0.052523326	0.0003235735
2.5000000000000457e-10	0.14609984	-0.07061683	0.00027087846	0.107007906	-0.060383894	-0.0045264266	0.3316874	-0.12567185	0.019514244	0.10700796	-0.060383923	-0.004526413
2.6000000000000246e-10	0.15235594	-0.07414583	-0.0036022444	0.10991011	-0.06134685	-0.009431152	0.3526105	-0.14017086	0.018992921	0.10991013	-0.06134687	-0.009431148
2.7000000000000036e-10	0.15651597	-0.07231572	-0.0097627	0.111359894	-0.055725478	-0.015843842	0.36844346	-0.15313978	0.01260933	0.11135987	-0.055725496	-0.015843842
2.8009999999999824e-10	0.15983078	-0.061771993	-0.016806934	0.11283177	-0.040700383	-0.022587355	0.37979305	-0.15841284	0.002953366	0.112831734	-0.040700383	-0.022587355
2.9009999999999613e-10	0.16202228	-0.04190255	-0.021645673	0.112850145	-0.015284723	-0.02655739	0.39111543	-0.15675434	-0.0063279374	0.11285009	-0.015284722	-0.026557386
3.0009999999999403e-10	0.16417617	-0.016264237	-0.020987945	0.11057873	0.015963228	-0.02495001	0.41140142	-0.14842695	-0.009337245	0.110578656	0.01596323	-0.024950014
3.1009999999999193e-10	0.16666661	0.009223453	-0.01462752	0.10496366	0.046433307	-0.017750192	0.44681185	-0.13777128	-0.0050623403	0.104963586	0.04643331	-0.017750192
3.2009999999998983e-10	0.16928758	0.026108155	-0.005611984	0.09806745	0.06845336	-0.007750696	0.48802572	-0.13805106	0.0018204745	0.09806736	0.068453364	-0.0077507
3.300999999999877e-10	0.17151543	0.029561725	0.0016885953	0.093257606	0.07684133	0.00060241605	0.51884985	-0.15364432	0.006371046	0.09325753	0.07684132	0.0006024089
3.400999999999856e-10	0.17414372	0.020336308	0.004845411	0.093186595	0.070487514	0.005122525	0.53280115	-0.17620113	0.004706045	0.09318651	0.07048747	0.0051225205
3.500999999999835e-10	0.17836934	0.001969885	0.0039540166	0.097823665	0.051161606	0.005852902	0.5362261	-0.1944029	-0.00285071	0.09782356	0.05116155	0.005852898
3.600999999999814e-10	0.18530276	-0.019849923	0.0014848755	0.106244996	0.025160098	0.005024163	0.53859454	-0.20385988	-0.01237529	0.106244884	0.025160048	0.0050241584
3.700999999999793e-10	0.19324091	-0.037891913	-0.0020595256	0.11594137	0.0019489467	0.0029594619	0.54108757	-0.2048337	-0.022547359	0.115941264	0.001948907	0.0029594512
3.800999999999772e-10	0.20117776	-0.04711401	-0.0064298618	0.12598398	-0.01279261	-4.492374e-05	0.5421886	-0.19382238	-0.033255547	0.12598386	-0.012792622	-4.4941342e-05
3.900999999999751e-10	0.20943274	-0.047524754	-0.010320916	0.1372746	-0.019720146	-0.0027113664	0.539952	-0.16824813	-0.04282326	0.13727446	-0.019720152	-0.0027113874
4.00099999999973e-10	0.21685937	-0.04168415	-0.013867245	0.1497167	-0.022007266	-0.0054432303	0.5288023	-0.12872848	-0.05033671	0.14971659	-0.022007283	-0.0054432526
4.100999999999709e-10	0.22200797	-0.033501532	-0.017178142	0.16201684	-0.02304076	-0.008778481	0.5063744	-0.082044855	-0.05421238	0.16201672	-0.023040801	-0.008778498
4.200999999999688e-10	0.22569071	-0.025768023	-0.020013958	0.17350754	-0.025002252	-0.012188232	0.47956166	-0.033984616	-0.05531963	0.17350748	-0.025002304	-0.01218824
4.300999999999667e-10	0.22918044	-0.018703897	-0.022370297	0.1845556	-0.027916957	-0.015082893	0.45351595	0.014407662	-0.055993974	0.18455556	-0.027917013	-0.015082886
4.400999999999646e-10	0.23261696	-0.012135943	-0.02432404	0.19500461	-0.032006375	-0.017909389	0.4295898	0.06491868	-0.05484748	0.19500461	-0.032006416	-0.017909374
4.500999999999625e-10	0.23822553	-0.005201381	-0.026041659	0.20704477	-0.03661613	-0.02126655	0.41059357	0.11941743	-0.05035045	0.20704484	-0.03661617	-0.021266539
4.600999999999604e-10	0.24846952	0.0023756507	-0.026313543	0.22371385	-0.040192213	-0.022864712	0.39718583	0.17312232	-0.045371592	0.22371396	-0.040192243	-0.022864703
4.700999999999606e-10	0.26353848	0.008992819	-0.02350113	0.24639718	-0.04257468	-0.019816156	0.384811	0.21706143	-0.042941283	0.24639733	-0.042574707	-0.019816142
4.800999999999636e-10	0.28163534	0.01297379	-0.018091867	0.2735602	-0.044262603	-0.013260675	0.3702627	0.2445142	-0.04103505	0.27356035	-0.044262636	-0.013260655
4.900999999999667e-10	0.2994638	0.014336316	-0.011670461	0.30085889	-0.04541688	-0.005886622	0.35377613	0.25621644	-0.037139963	0.30085897	-0.04541693	-0.0058865948
5.000999999999698e-10	0.31236738	0.013330027	-0.005140418	0.32207	-0.04826114	0.0010664724	0.3360301	0.26236087	-0.030996108	0.32207006	-0.048261233	0.0010664964
5.100999999999728e-10	0.31759232	0.01013599	0.00033097973	0.33393997	-0.05489863	0.0067244484	0.31572032	0.2723019	-0.025176715	0.33393997	-0.05489876	0.0067244573
5.200999999999759e-10	0.31503326	0.006105607	0.003537804	0.33697587	-0.0644841	0.009927811	0.29026955	0.2896858	-0.021314634	0.33697584	-0.06448422	0.009927796
5.30099999999979e-10	0.3070603	0.0013450243	0.0034599367	0.333507	-0.076402396	0.009409265	0.2626859	0.31260392	-0.019645315	0.3335069	-0.0764025	0.009409229
5.40099999999982e-10	0.29760215	-0.004160785	0.0009217748	0.32701787	-0.08974036	0.0061273267	0.23945972	0.33732548	-0.019715983	0.32701784	-0.08974043	0.0061272783
5.500999999999851e-10	0.29028466	-0.0085061425	-0.0019067673	0.32133844	-0.10183449	0.0023584974	0.22412673	0.3631061	-0.019349094	0.32133833	-0.101834536	0.0023584557
5.600999999999882e-10	0.28659838	-0.009840413	-0.0048113805	0.31870568	-0.110840894	-0.0014839902	0.21548896	0.3921935	-0.019083168	0.31870565	-0.11084094	-0.001484012
5.700999999999912e-10	0.2868876	-0.0076976013	-0.008333346	0.32005614	-0.11569196	-0.005785784	0.21159077	0.4227404	-0.020190246	0.3200562	-0.115692005	-0.0057857907
5.800999999999943e-10	0.2906552	-0.002000427	-0.011644046	0.32544428	-0.11488116	-0.009614907	0.20962954	0.4491225	-0.022089422	0.32544437	-0.114881195	-0.009614903
5.900999999999974e-10	0.29593053	0.0074667013	-0.012781545	0.33342972	-0.10759379	-0.010786386	0.20511964	0.46920198	-0.023318546	0.33342987	-0.10759381	-0.010786357
6.000000000000004e-10	0.29968104	0.019540133	-0.011372907	0.3414382	-0.095909454	-0.008761432	0.19258806	0.4852465	-0.024093485	0.3414384	-0.095909454	-0.008761384
6.100000000000035e-10	0.30007875	0.03111319	-0.009730801	0.34817702	-0.084466636	-0.006174635	0.16770089	0.49965516	-0.025901705	0.34817725	-0.08446662	-0.006174593
6.200000000000065e-10	0.29840693	0.03985922	-0.010328046	0.354909	-0.0761904	-0.0064160777	0.13207933	0.5120295	-0.028041545	0.3549093	-0.076190375	-0.0064160703
6.300000000000096e-10	0.29802898	0.045523323	-0.013305394	0.36485353	-0.07147559	-0.009643025	0.09033604	0.52262354	-0.030615885	0.3648538	-0.07147555	-0.009643058
6.400000000000127e-10	0.30065855	0.048095994	-0.016901424	0.38024548	-0.069243416	-0.012951883	0.04244215	0.5270728	-0.036079776	0.38024575	-0.069243394	-0.012951928
6.500000000000157e-10	0.30481836	0.048204474	-0.018595247	0.39953512	-0.06712333	-0.0134984255	-0.013085234	0.5191566	-0.042701524	0.39953527	-0.06712333	-0.013498448
6.600000000000188e-10	0.30846375	0.046562575	-0.017863652	0.41906756	-0.06385919	-0.011334591	-0.07225895	0.49756217	-0.047552664	0.41906768	-0.06385921	-0.011334578
6.700000000000219e-10	0.31106016	0.042813286	-0.016025864	0.43612266	-0.0605857	-0.008773963	-0.12697807	0.46497202	-0.048238706	0.4361228	-0.060585737	-0.008773929
6.80000000000025e-10	0.31363022	0.037839808	-0.014877646	0.45005688	-0.05778981	-0.0083484445	-0.16935046	0.4279264	-0.043970037	0.45005694	-0.057789873	-0.008348415
6.90000000000028e-10	0.31650555	0.034320477	-0.015115504	0.46117944	-0.054285157	-0.010552952	-0.19888912	0.39560726	-0.036388826	0.46117955	-0.05428523	-0.010552945
7.000000000000311e-10	0.32037148	0.035057094	-0.016254652	0.47157708	-0.048562624	-0.014262632	-0.22037664	0.3765475	-0.027473623	0.4715771	-0.04856267	-0.014262656
7.100000000000342e-10	0.3249543	0.041855827	-0.017491307	0.48229328	-0.03909401	-0.017646637	-0.23941085	0.37402636	-0.020368142	0.4822933	-0.03909402	-0.017646685
7.200000000000372e-10	0.3290165	0.0532759	-0.017638296	0.49246234	-0.025774652	-0.01848903	-0.25896397	0.38013312	-0.017762886	0.49246246	-0.02577458	-0.018489094
7.300000000000403e-10	0.3313393	0.06564315	-0.016128631	0.50104266	-0.01156403	-0.01579628	-0.28120643	0.38760024	-0.02068362	0.5010427	-0.011563879	-0.015796347
7.400000000000434e-10	0.33190027	0.07405679	-0.013369244	0.50851643	-0.0011381898	-0.010626095	-0.3081845	0.38964763	-0.027015572	0.50851655	-0.0011379722	-0.010626154
7.500000000000464e-10	0.33207008	0.07653585	-0.010455677	0.5166128	0.0035390698	-0.0057306974	-0.3396873	0.3838296	-0.031446688	0.51661307	0.0035393469	-0.0057307193
7.600000000000495e-10	0.33351082	0.07489432	-0.008725156	0.5273687	0.0039958707	-0.0031315559	-0.37521914	0.3734663	-0.032844625	0.5273689	0.003996186	-0.003131535
7.700000000000526e-10	0.33685592	0.07188957	-0.008519397	0.5409206	0.003244652	-0.0026407184	-0.4120319	0.36084655	-0.033738088	0.54092073	0.003244977	-0.0026406688
7.800000000000556e-10	0.3413203	0.06879056	-0.009520379	0.5551871	0.0031856918	-0.0034047477	-0.4458829	0.34496754	-0.035887092	0.5551871	0.003186008	-0.0034046888
7.900000000000587e-10	0.34593874	0.06593619	-0.0117235435	0.56856287	0.0044545475	-0.005471921	-0.47536945	0.32504946	-0.039074846	0.5685628	0.004454826	-0.0054718694
8.000000000000618e-10	0.35039377	0.064162	-0.014922323	0.5809451	0.008102329	-0.009319055	-0.5017328	0.30123264	-0.040319946	0.580945	0.008102542	-0.009319012
8.100000000000648e-10	0.35384983	0.0656189	-0.018460883	0.59146315	0.01588536	-0.014481759	-0.52583355	0.27767664	-0.038069658	0.59146315	0.01588549	-0.014481708
8.200000000000679e-10	0.35538027	0.071328215	-0.021157907	0.59872365	0.028098878	-0.019106919	-0.546917	0.25851116	-0.033593558	0.5987236	0.028098926	-0.019106856
8.30000000000071e-10	0.354718	0.07901793	-0.02214258	0.60220873	0.041534226	-0.02185521	-0.5643011	0.24475643	-0.027720675	0.6022086	0.041534185	-0.021855157
8.40000000000074e-10	0.35260785	0.08689046	-0.0210188	0.6027499	0.05362895	-0.021813028	-0.5774382	0.23731482	-0.022045713	0.60274965	0.05362884	-0.021812987
8.500000000000771e-10	0.34945953	0.094149776	-0.017807445	0.6012593	0.06355122	-0.018339023	-0.5878471	0.2353743	-0.019242663	0.60125905	0.06355104	-0.018338999
8.600000000000802e-10	0.3454216	0.09886237	-0.013115845	0.59910464	0.06981587	-0.012554857	-0.6002258	0.23482129	-0.017982997	0.5991044	0.06981565	-0.012554841
8.700000000000832e-10	0.3419441	0.09966365	-0.008648901	0.59839857	0.07129068	-0.0068351864	-0.6154848	0.23308873	-0.017633565	0.5983984	0.071290456	-0.006835174
8.800000000000863e-10	0.34002784	0.09613066	-0.0060540657	0.59987175	0.06800775	-0.0030149736	-0.63134205	0.22784886	-0.019421253	0.59987164	0.06800755	-0.0030149694
8.900000000000894e-10	0.33923227	0.088733904	-0.005743352	0.60295755	0.061162136	-0.0018483935	-0.6478217	0.21676806	-0.022471841	0.60295737	0.061161995	-0.0018484027
9.000000000000924e-10	0.33835602	0.07964642	-0.007357138	0.6063611	0.05370001	-0.0033380059	-0.66599256	0.19936153	-0.024905045	0.60636085	0.053699903	-0.0033380326
9.100000000000955e-10	0.33675072	0.07138506	-0.010281199	0.60934496	0.04860348	-0.006826084	-0.6862761	0.17678854	-0.026157826	0.60934484	0.048603408	-0.0068261204
9.200000000000986e-10	0.3346723	0.06566426	-0.013521781	0.6116491	0.047530875	-0.011015175	-0.70630014	0.15133074	-0.026252482	0.6116489	0.047530837	-0.011015216
9.300000000001016e-10	0.33302748	0.06334749	-0.015720326	0.6135005	0.050962515	-0.014051089	-0.7222587	0.12555692	-0.025541266	0.61350036	0.0509625	-0.014051127
9.400000000001047e-10	0.3326115	0.06372816	-0.016572516	0.61565584	0.057580728	-0.0152069675	-0.7330434	0.101063535	-0.025349155	0.6156558	0.05758072	-0.015206997
9.500000000001078e-10	0.33323762	0.06486136	-0.016566684	0.6178409	0.06494055	-0.014947772	-0.7385279	0.0775169	-0.026355654	0.6178409	0.06494052	-0.014947778
9.600000000001108e-10	0.3333673	0.064898156	-0.016040375	0.6183159	0.070713446	-0.013972044	-0.7397538	0.054616787	-0.027521824	0.6183158	0.070713356	-0.01397202
9.70000000000114e-10	0.33130345	0.06343338	-0.015507742	0.61602515	0.07440053	-0.013022447	-0.7413228	0.03225172	-0.028550556	0.6160251	0.07440038	-0.013022402
9.80000000000117e-10	0.32647008	0.06218975	-0.015242389	0.6111657	0.07793661	-0.01252275	-0.74701834	0.0116406055	-0.029169526	0.61116564	0.0779364	-0.012522702
9.9000000000012e-10	0.32047933	0.06316315	-0.015127089	0.6054798	0.08351608	-0.012376867	-0.75542635	-0.0056155515	-0.02915343	0.6054797	0.08351585	-0.012376843
1.0000000000001231e-09	0.31534907	0.06580908	-0.014698293	0.60066307	0.090685904	-0.011892615	-0.76283693	-0.020535972	-0.028860623	0.6006629	0.09068567	-0.011892637
1.0100000000001262e-09	0.31210217	0.06818284	-0.013786722	0.59774446	0.0971665	-0.010605167	-0.76804626	-0.034114864	-0.029270176	0.59774435	0.09716633	-0.010605225
1.0200000000001292e-09	0.31145808	0.06832461	-0.012429042	0.59779835	0.10080685	-0.008465163	-0.77161086	-0.047939174	-0.030770227	0.59779817	0.10080673	-0.0084652295
1.0300000000001323e-09	0.31334558	0.06468136	-0.010812607	0.6010989	0.10004397	-0.006094467	-0.7749981	-0.063832656	-0.031847585	0.6010987	0.10004389	-0.00609452
1.0400000000001354e-09	0.31705552	0.057887767	-0.00891452	0.60707724	0.095173195	-0.003988552	-0.77962005	-0.07967634	-0.030401241	0.6070771	0.09517318	-0.003988576
1.0500000000001384e-09	0.321307	0.05043132	-0.0070689004	0.614227	0.08836292	-0.0027009386	-0.78611135	-0.09120884	-0.02595456	0.6142269	0.08836293	-0.0027009223
1.0600000000001415e-09	0.3242188	0.0446093	-0.0062118303	0.61988974	0.08228339	-0.00298507	-0.7936204	-0.09716519	-0.020361336	0.61988956	0.0822834	-0.0029850225
1.0700000000001446e-09	0.3239841	0.042176597	-0.006657432	0.6213695	0.07920252	-0.004702844	-0.8007604	-0.097491786	-0.015807392	0.6213693	0.07920251	-0.004702783
1.0800000000001476e-09	0.3201532	0.043832295	-0.0077503095	0.61773413	0.07981736	-0.006688115	-0.8061396	-0.0913414	-0.013549253	0.61773396	0.0798173	-0.006688063
1.0900000000001507e-09	0.31369874	0.048180554	-0.008335111	0.6103393	0.08239937	-0.007488165	-0.81012374	-0.07905842	-0.013389972	0.6103392	0.08239927	-0.007488136
1.1000000000001538e-09	0.30603802	0.052640017	-0.007568896	0.60158044	0.08415243	-0.006163831	-0.81492376	-0.062881365	-0.014702952	0.60158026	0.08415228	-0.0061638225
1.1100000000001568e-09	0.29838103	0.054668836	-0.005716262	0.59349835	0.082765535	-0.0034117945	-0.8224119	-0.046783805	-0.016077375	0.5934983	0.08276534	-0.0034117973
1.12000000000016e-09	0.29175445	0.052965958	-0.0042180973	0.58756167	0.077279255	-0.0011855245	-0.8331233	-0.033693556	-0.017192002	0.5875616	0.07727901	-0.0011855274
1.130000000000163e-09	0.28696713	0.04829502	-0.0040803757	0.584741	0.06876321	-0.00080077985	-0.8467347	-0.023918092	-0.01801482	0.58474094	0.06876291	-0.0008007858
1.140000000000166e-09	0.284693	0.042976655	-0.0052401284	0.5856174	0.0599281	-0.002294817	-0.8620658	-0.016233187	-0.01806937	0.58561736	0.05992779	-0.002294833
1.1500000000001691e-09	0.28519347	0.039589565	-0.00730628	0.59010994	0.053876013	-0.005111606	-0.87743366	-0.009637748	-0.017546173	0.5901099	0.053875733	-0.0051116347
1.1600000000001722e-09	0.287942	0.039502162	-0.009918517	0.59718335	0.052536745	-0.008391256	-0.89143467	-0.0047352887	-0.018011216	0.5971832	0.052536536	-0.008391285
1.1700000000001753e-09	0.29194558	0.0421053	-0.012473413	0.6049346	0.05585416	-0.011194864	-0.90162104	-0.00446882	-0.020082254	0.60493445	0.055854015	-0.011194883
1.1800000000001783e-09	0.29697254	0.045835283	-0.014063982	0.612	0.06243093	-0.012447523	-0.9037426	-0.011380101	-0.023342583	0.612	0.062430847	-0.012447538
1.1900000000001814e-09	0.30308998	0.049208738	-0.013897686	0.6179174	0.07019816	-0.011205703	-0.89560163	-0.024907185	-0.027445108	0.6179174	0.07019813	-0.011205731
1.2000000000001845e-09	0.308829	0.050000645	-0.012155543	0.6218005	0.07600572	-0.0077686794	-0.88129103	-0.044019613	-0.032133985	0.6218004	0.07600576	-0.0077687404
1.2100000000001875e-09	0.31241858	0.04570152	-0.010013208	0.622426	0.076810494	-0.0039252792	-0.86512756	-0.0695943	-0.03636738	0.62242603	0.07681061	-0.003925371
1.2200000000001906e-09	0.31324428	0.035957716	-0.008587228	0.6194349	0.072014056	-0.0016845375	-0.8488696	-0.10107658	-0.037915245	0.61943495	0.07201428	-0.0016846366
1.2300000000001937e-09	0.31170753	0.023640286	-0.008503967	0.6140814	0.06439122	-0.0019403358	-0.8354462	-0.13463597	-0.03645914	0.6140814	0.06439153	-0.0019404066
1.2400000000001967e-09	0.30915135	0.012215791	-0.009440993	0.608493	0.057867445	-0.004142464	-0.82638454	-0.16794842	-0.032523274	0.608493	0.057867825	-0.00414248
1.2500000000001998e-09	0.30699974	0.00502634	-0.010558289	0.604921	0.056025125	-0.007284297	-0.8232853	-0.19796433	-0.025765985	0.604921	0.056025516	-0.007284266
1.2600000000002029e-09	0.30576152	0.0039975997	-0.011380349	0.60404027	0.061055988	-0.010079273	-0.82620066	-0.22343704	-0.018860832	0.60404	0.06105631	-0.010079216
1.270000000000206e-09	0.30509847	0.008982483	-0.01137254	0.6050286	0.07241379	-0.011400516	-0.8336024	-0.24294665	-0.013535285	0.60502857	0.072413996	-0.011400446
1.280000000000209e-09	0.30462602	0.017761149	-0.010242106	0.6067894	0.08731787	-0.010840448	-0.8431018	-0.25691354	-0.00989729	0.60678923	0.087317884	-0.010840388
1.290000000000212e-09	0.30376244	0.026703803	-0.008273279	0.6079946	0.10148364	-0.008817692	-0.8524135	-0.2670745	-0.007750356	0.6079945	0.10148349	-0.008817658
1.3000000000002151e-09	0.3019051	0.03297401	-0.0058947946	0.60747665	0.11122914	-0.0061900355	-0.86	-0.27345115	-0.005892788	0.6074765	0.11122886	-0.0061900364
1.3100000000002182e-09	0.29893512	0.035827775	-0.0035609414	0.60495883	0.11515001	-0.003792579	-0.86537236	-0.27429494	-0.0033465542	0.6049587	0.11514969	-0.0037925919
1.3200000000002213e-09	0.2954547	0.036105983	-0.0015087569	0.60149646	0.11433307	-0.001945309	-0.8696209	-0.26958048	-6.4322165e-05	0.60149634	0.11433272	-0.0019452979
1.3300000000002243e-09	0.29243824	0.035427023	0.00033372376	0.59846795	0.11118619	-0.0004909822	-0.87319267	-0.2605236	0.0036992214	0.5984679	0.11118585	-0.00049094675
1.3400000000002274e-09	0.29083446	0.03556708	0.0018683455	0.5969601	0.107911445	0.0006207675	-0.87550133	-0.24669628	0.007232244	0.5969602	0.10791111	0.00062080927
1.3500000000002305e-09	0.29101303	0.03769441	0.0030364892	0.5973898	0.105967715	0.0015173171	-0.8762916	-0.22785933	0.009720407	0.5973898	0.10596742	0.0015173507
1.3600000000002335e-09	0.29235554	0.041507356	0.0037154758	0.5993306	0.1054742	0.0021819551	-0.87707394	-0.2060581	0.010592641	0.5993307	0.10547396	0.0021819607
1.3700000000002366e-09	0.29404676	0.045757588	0.0039318493	0.6020697	0.10565002	0.0027398162	-0.8792356	-0.18466029	0.009486394	0.60206974	0.10564985	0.002739795
1.3800000000002397e-09	0.29619446	0.048826594	0.0042863525	0.6053917	0.10500468	0.0038487266	-0.8813559	-0.16612025	0.006894169	0.6053918	0.105004594	0.003848705
1.3900000000002427e-09	0.29897583	0.04918866	0.0050646365	0.60901105	0.10189031	0.005586018	-0.88137007	-0.1517801	0.0039920784	0.6090111	0.10189028	0.0055859983
1.4000000000002458e-09	0.30145267	0.04567061	0.0059165764	0.61169684	0.09504067	0.0073205223	-0.87923324	-0.14267546	0.0014841654	0.61169684	0.09504064	0.0073204935
1.4100000000002489e-09	0.3020577	0.038355075	0.0063123577	0.61184573	0.08457374	0.008439755	-0.87668324	-0.13884847	-0.00093468407	0.61184585	0.08457369	0.008439719
1.420000000000252e-09	0.30042535	0.028533518	0.005628846	0.6092675	0.07208078	0.008269466	-0.8748581	-0.13994873	-0.0038077962	0.6092676	0.07208074	0.008269432
1.430000000000255e-09	0.2978751	0.018644143	0.003666588	0.60576123	0.06048726	0.006416943	-0.87409437	-0.1449994	-0.0066014444	0.60576123	0.060487222	0.0064169094
1.440000000000258e-09	0.29601538	0.011327765	0.0009617562	0.6033412	0.052755695	0.003364019	-0.87408507	-0.15211838	-0.008454866	0.6033413	0.052755695	0.0033639811
1.4500000000002611e-09	0.29581606	0.008046488	-0.0016839381	0.6031008	0.050377198	9.9158286e-05	-0.87415963	-0.15966713	-0.009153059	0.6031008	0.050377242	9.913277e-05
1.4600000000002642e-09	0.29750022	0.008522276	-0.003758715	0.60539514	0.052688636	-0.0027406728	-0.8745794	-0.16643892	-0.008582627	0.6053952	0.05268874	-0.0027406723
1.4700000000002673e-09	0.30060446	0.011741856	-0.0049400707	0.60998684	0.057864137	-0.0047922293	-0.87680405	-0.17039911	-0.0065195025	0.6099869	0.057864238	-0.004792204
1.4800000000002703e-09	0.30411693	0.01626014	-0.0051535894	0.61578494	0.06367483	-0.0057098875	-0.8817314	-0.17014673	-0.0039592152	0.61578494	0.06367489	-0.005709837
1.4900000000002734e-09	0.30715042	0.020327376	-0.004506749	0.6214284	0.06787653	-0.005324547	-0.8885313	-0.16580375	-0.0021370153	0.6214284	0.06787653	-0.0053244918
1.5000000000002765e-09	0.3087877	0.022580115	-0.003560511	0.625518	0.06906696	-0.004325818	-0.89637625	-0.15885115	-0.0012114733	0.6255182	0.06906692	-0.004325772
1.5100000000002795e-09	0.30848292	0.0232375	-0.0030200903	0.6271637	0.0678631	-0.0036918938	-0.9045435	-0.1506173	-0.00093695766	0.62716377	0.06786304	-0.003691861
1.5200000000002826e-09	0.3065883	0.023434488	-0.003080469	0.6264289	0.065991566	-0.0035691462	-0.9114564	-0.14210677	-0.0017419022	0.62642896	0.06599148	-0.0035691236
1.5300000000002857e-09	0.30389896	0.023560127	-0.0035924201	0.6241018	0.06442139	-0.0036894053	-0.9161329	-0.13517268	-0.0039229966	0.6241018	0.064421274	-0.0036893878
1.5400000000002887e-09	0.30119288	0.02310695	-0.004327728	0.62123525	0.06297711	-0.0038821413	-0.91873807	-0.13175207	-0.006975631	0.62123525	0.06297698	-0.0038821348
1.5500000000002918e-09	0.29905117	0.021650758	-0.004907527	0.6188272	0.06135224	-0.0038679247	-0.9202426	-0.13282475	-0.010047404	0.61882704	0.061352096	-0.0038679417
1.5600000000002949e-09	0.29802555	0.019583397	-0.004906046	0.6176703	0.059874345	-0.0033143826	-0.920948	-0.13766335	-0.01225381	0.6176701	0.05987417	-0.0033144332
1.570000000000298e-09	0.2986437	0.017727803	-0.0044755093	0.61830914	0.0590684	-0.0024686083	-0.92028856	-0.14408866	-0.013398093	0.6183088	0.059068214	-0.0024686723
1.580000000000301e-09	0.30082142	0.016294854	-0.004278334	0.62061423	0.058869373	-0.0020203828	-0.91818523	-0.15074389	-0.014165725	0.62061405	0.058869176	-0.002020421
1.590000000000304e-09	0.30379453	0.014968152	-0.0046668528	0.6237041	0.058814563	-0.0023224875	-0.9150842	-0.15742344	-0.014977695	0.62370384	0.058814358	-0.0023224843
1.6000000000003071e-09	0.30657652	0.013404924	-0.005375597	0.62634647	0.058541417	-0.0031117536	-0.9111875	-0.16445962	-0.0155061735	0.62634623	0.05854119	-0.0031117122
1.6100000000003102e-09	0.3084501	0.011624063	-0.006043626	0.62782353	0.058076464	-0.004024436	-0.9073528	-0.17186022	-0.015329221	0.6278233	0.058076203	-0.0040243804
1.6200000000003133e-09	0.3093553	0.01027999	-0.006506085	0.6282914	0.058095355	-0.004895985	-0.9045175	-0.17892486	-0.014247802	0.62829113	0.058095057	-0.004895938
1.6300000000003164e-09	0.3097131	0.010353934	-0.006657421	0.6284248	0.059552442	-0.0055357437	-0.9031911	-0.18436863	-0.012475692	0.6284246	0.059552096	-0.0055357083
1.6400000000003194e-09	0.31020272	0.012279832	-0.0066185524	0.62907046	0.062827155	-0.005807777	-0.90322715	-0.18745276	-0.0111854235	0.6290701	0.06282679	-0.005807751
1.6500000000003225e-09	0.311535	0.015460343	-0.0066961753	0.63088006	0.06747163	-0.0059099845	-0.90353787	-0.189492	-0.011180193	0.6308799	0.06747127	-0.005909977
1.6600000000003256e-09	0.31398472	0.018966002	-0.0069547147	0.6339354	0.07280482	-0.006024008	-0.9030204	-0.19259539	-0.01206844	0.63393515	0.07280448	-0.006024033
1.6700000000003286e-09	0.31724182	0.022056418	-0.0071774507	0.6378739	0.078112915	-0.006055408	-0.9018377	-0.19775765	-0.013101026	0.63787377	0.07811261	-0.006055453
1.6800000000003317e-09	0.32077792	0.02432875	-0.0072512943	0.6420984	0.08277406	-0.0059598675	-0.9003485	-0.20458618	-0.013867147	0.64209837	0.08277379	-0.005959922
1.6900000000003348e-09	0.323973	0.025698284	-0.00730369	0.6458221	0.08653664	-0.005866454	-0.8986286	-0.21251504	-0.014513271	0.645822	0.08653642	-0.005866505
1.7000000000003378e-09	0.32639283	0.02612446	-0.0075283614	0.6485001	0.08936888	-0.005909542	-0.8967575	-0.22162798	-0.01550924	0.6485001	0.089368716	-0.005909577
1.7100000000003409e-09	0.3280582	0.025882136	-0.007969773	0.65010226	0.0916671	-0.0061635724	-0.89450586	-0.23208101	-0.016788522	0.65010214	0.09166696	-0.006163577
1.720000000000344e-09	0.32932398	0.025725441	-0.008442298	0.65104854	0.09436468	-0.006561135	-0.8917093	-0.2436862	-0.017655486	0.6510484	0.09436455	-0.0065611014
1.730000000000347e-09	0.33072457	0.026557766	-0.008576802	0.6520411	0.09845983	-0.006741488	-0.88839644	-0.25573865	-0.017633555	0.6520411	0.09845967	-0.0067414194
1.74000000000035e-09	0.33265126	0.028834684	-0.008110214	0.653663	0.10438786	-0.0063275783	-0.884865	-0.26761055	-0.01686299	0.65366286	0.104387596	-0.0063274847
1.7500000000003532e-09	0.33503443	0.03196982	-0.0069997013	0.6559461	0.111420825	-0.0050947107	-0.881605	-0.27943957	-0.016019795	0.655946	0.1114205	-0.0050946125
1.7600000000003562e-09	0.33750173	0.034438636	-0.005285718	0.6584891	0.11775247	-0.0029700182	-0.8789468	-0.2919281	-0.015605846	0.65848905	0.11775205	-0.002969927
1.7700000000003593e-09	0.33983532	0.034958627	-0.0032010672	0.66097033	0.121735595	-0.00033265934	-0.8767377	-0.30515647	-0.0153150465	0.66097033	0.12173507	-0.00033259075
1.7800000000003624e-09	0.34211177	0.03348557	-0.0011948305	0.6634902	0.12300315	0.0020345596	-0.8749794	-0.3178864	-0.014351426	0.6634902	0.12300255	0.002034593
1.7900000000003654e-09	0.3446139	0.03094038	0.00032814493	0.66649294	0.12224758	0.003549405	-0.8739794	-0.3280991	-0.012491242	0.6664929	0.122246966	0.0035493933
1.8000000000003685e-09	0.34782884	0.02826479	0.0011458644	0.67056745	0.12033029	0.0040720045	-0.8735596	-0.33434308	-0.010329409	0.6705674	0.120329715	0.0040719486
1.8100000000003716e-09	0.35243654	0.026128275	0.0013255322	0.6764338	0.117982686	0.0038348653	-0.873065	-0.33606273	-0.008446529	0.6764337	0.11798217	0.0038347822